Name: Berkelium
Symbol: Bk
Atomic Number: 97
Atomic Mass: 247
Number of Neutrons: 150
Number of Protons: 97
Number of Electrons: 97
Period: 7
Group: 
Phase: artificial
Radioactive: yes
Natural: 
Metal: yes
Nonmetal: 
Metalloid: 
Type: Actinide
Atomic Radius: 
Electronegativity: 1.3
First Ionization: 6.1979
Density: 1.48E+01
Melting Point: 1259.15
Boiling Point: 983
Number of Isotopes: 83
Discoverer: Seaborg et al.
Year: 1949
Specific Heat: 
Number of Shells: 7
Number of Valence: 
