Name: Radon
Symbol: Rn
Atomic Number: 86
Atomic Mass: 222
Number of Neutrons: 136
Number of Protons: 86
Number of Electrons: 86
Period: 6
Group: 18
Phase: gas
Radioactive: yes
Natural: yes
Metal: yes
Nonmetal: 
Metalloid: 
Type: Alkali Metal
Atomic Radius: 1.3
Electronegativity: 
First Ionization: 10.7485
Density: 9.73E-03
Melting Point: 202.15
Boiling Point: 211.3
Number of Isotopes: 20
Discoverer: Dorn
Year: 1900
Specific Heat: 0.094
Number of Shells: 6
Number of Valence: 8
