Name: Curium
Symbol: Cm
Atomic Number: 96
Atomic Mass: 247
Number of Neutrons: 151
Number of Protons: 96
Number of Electrons: 96
Period: 7
Group: 
Phase: artificial
Radioactive: yes
Natural: 
Metal: yes
Nonmetal: 
Metalloid: 
Type: Actinide
Atomic Radius: 
Electronegativity: 1.3
First Ionization: 5.9915
Density: 1.35E+01
Melting Point: 1340.15
Boiling Point: 3383
Number of Isotopes: 133
Discoverer: Seaborg et al.
Year: 1944
Specific Heat: 
Number of Shells: 7
Number of Valence: 
