Name: Phosphorus
Symbol: P
Atomic Number: 15
Atomic Mass: 30.974
Number of Neutrons: 16
Number of Protons: 15
Number of Electrons: 15
Period: 3
Group: 15
Phase: solid
Radioactive: 
Natural: yes
Metal: 
Nonmetal: yes
Metalloid: 
Type: Nonmetal
Atomic Radius: 1.2
Electronegativity: 2.19
First Ionization: 10.4867
Density: 1.82E+00
Melting Point: 317.25
Boiling Point: 553
Number of Isotopes: 7
Discoverer: BranBrand
Year: 1669
Specific Heat: 0.769
Number of Shells: 3
Number of Valence: 5
