Name: Oxygen
Symbol: O
Atomic Number: 8
Atomic Mass: 15.999
Number of Neutrons: 8
Number of Protons: 8
Number of Electrons: 8
Period: 2
Group: 16
Phase: gas
Radioactive: 
Natural: yes
Metal: 
Nonmetal: yes
Metalloid: 
Type: Nonmetal
Atomic Radius: 0.65
Electronegativity: 3.44
First Ionization: 13.6181
Density: 1.43E-03
Melting Point: 50.5
Boiling Point: 90.2
Number of Isotopes: 8
Discoverer: Priestley/Scheele
Year: 1774
Specific Heat: 0.918
Number of Shells: 2
Number of Valence: 6
