Name: Americium
Symbol: Am
Atomic Number: 95
Atomic Mass: 243
Number of Neutrons: 148
Number of Protons: 95
Number of Electrons: 95
Period: 7
Group: 
Phase: artificial
Radioactive: yes
Natural: 
Metal: yes
Nonmetal: 
Metalloid: 
Type: Actinide
Atomic Radius: 
Electronegativity: 1.3
First Ionization: 5.9738
Density: 1.37E+01
Melting Point: 1267.15
Boiling Point: 2880
Number of Isotopes: 133
Discoverer: Seaborg et al.
Year: 1944
Specific Heat: 
Number of Shells: 7
Number of Valence: 
