Name: Hafnium
Symbol: Hf
Atomic Number: 72
Atomic Mass: 178.49
Number of Neutrons: 106
Number of Protons: 72
Number of Electrons: 72
Period: 6
Group: 4
Phase: solid
Radioactive: 
Natural: yes
Metal: yes
Nonmetal: 
Metalloid: 
Type: Transition Metal
Atomic Radius: 2.2
Electronegativity: 1.3
First Ionization: 6.8251
Density: 1.33E+01
Melting Point: 2500.15
Boiling Point: 4876
Number of Isotopes: 17
Discoverer: Coster and von Hevesy
Year: 1923
Specific Heat: 0.144
Number of Shells: 6
Number of Valence: 
