Name: Zirconium
Symbol: Zr
Atomic Number: 40
Atomic Mass: 91.224
Number of Neutrons: 51
Number of Protons: 40
Number of Electrons: 40
Period: 5
Group: 4
Phase: solid
Radioactive: 
Natural: yes
Metal: yes
Nonmetal: 
Metalloid: 
Type: Transition Metal
Atomic Radius: 2.2
Electronegativity: 1.33
First Ionization: 6.6339
Density: 6.51E+00
Melting Point: 2125.15
Boiling Point: 4682
Number of Isotopes: 20
Discoverer: Klaproth
Year: 1789
Specific Heat: 0.278
Number of Shells: 5
Number of Valence: 
