Name: Thorium
Symbol: Th
Atomic Number: 90
Atomic Mass: 232.038
Number of Neutrons: 142
Number of Protons: 90
Number of Electrons: 90
Period: 7
Group: 
Phase: solid
Radioactive: yes
Natural: yes
Metal: yes
Nonmetal: 
Metalloid: 
Type: Actinide
Atomic Radius: 
Electronegativity: 1.3
First Ionization: 6.3067
Density: 1.17E+01
Melting Point: 2028.15
Boiling Point: 5061
Number of Isotopes: 12
Discoverer: Berzelius
Year: 1828
Specific Heat: 0.113
Number of Shells: 7
Number of Valence: 
