Name: Wolfram
Symbol: W
Atomic Number: 74
Atomic Mass: 183.84
Number of Neutrons: 110
Number of Protons: 74
Number of Electrons: 74
Period: 6
Group: 6
Phase: solid
Radioactive: 
Natural: yes
Metal: yes
Nonmetal: 
Metalloid: 
Type: Transition Metal
Atomic Radius: 2
Electronegativity: 2.36
First Ionization: 7.864
Density: 1.93E+01
Melting Point: 3680.15
Boiling Point: 5828
Number of Isotopes: 22
Discoverer: J. and F. d'Elhuyar
Year: 1783
Specific Heat: 0.132
Number of Shells: 6
Number of Valence: 
