Name: Krypton
Symbol: Kr
Atomic Number: 36
Atomic Mass: 83.798
Number of Neutrons: 48
Number of Protons: 36
Number of Electrons: 36
Period: 4
Group: 18
Phase: gas
Radioactive: 
Natural: yes
Metal: 
Nonmetal: yes
Metalloid: 
Type: Noble Gas
Atomic Radius: 1
Electronegativity: 
First Ionization: 13.9996
Density: 3.73E-03
Melting Point: 115.93
Boiling Point: 119.93
Number of Isotopes: 23
Discoverer: Ramsay and Travers
Year: 1898
Specific Heat: 0.248
Number of Shells: 4
Number of Valence: 8
