Name: Lead
Symbol: Pb
Atomic Number: 82
Atomic Mass: 207.2
Number of Neutrons: 125
Number of Protons: 82
Number of Electrons: 82
Period: 6
Group: 14
Phase: solid
Radioactive: 
Natural: yes
Metal: yes
Nonmetal: 
Metalloid: 
Type: Metal
Atomic Radius: 1.8
Electronegativity: 2.33
First Ionization: 7.4167
Density: 1.13E+01
Melting Point: 600.75
Boiling Point: 2022
Number of Isotopes: 29
Discoverer: Prehistoric
Year: 
Specific Heat: 0.129
Number of Shells: 6
Number of Valence: 4
