Name: Helium
Symbol: He
Atomic Number: 2
Atomic Mass: 4.002
Number of Neutrons: 2
Number of Protons: 2
Number of Electrons: 2
Period: 1
Group: 18
Phase: gas
Radioactive: 
Natural: yes
Metal: 
Nonmetal: yes
Metalloid: 
Type: Noble Gas
Atomic Radius: 0.49
Electronegativity: 
First Ionization: 24.5874
Density: 1.79E-04
Melting Point: 
Boiling Point: 4.22
Number of Isotopes: 5
Discoverer: Janssen
Year: 1868
Specific Heat: 5.193
Number of Shells: 1
Number of Valence: 
