Name: Californium
Symbol: Cf
Atomic Number: 98
Atomic Mass: 251
Number of Neutrons: 153
Number of Protons: 98
Number of Electrons: 98
Period: 7
Group: 
Phase: artificial
Radioactive: yes
Natural: 
Metal: yes
Nonmetal: 
Metalloid: 
Type: Actinide
Atomic Radius: 
Electronegativity: 1.3
First Ionization: 6.2817
Density: 1.51E+01
Melting Point: 1925.15
Boiling Point: 1173
Number of Isotopes: 123
Discoverer: Seaborg et al.
Year: 1950
Specific Heat: 
Number of Shells: 7
Number of Valence: 
