Name: Niobium
Symbol: Nb
Atomic Number: 41
Atomic Mass: 92.906
Number of Neutrons: 52
Number of Protons: 41
Number of Electrons: 41
Period: 5
Group: 5
Phase: solid
Radioactive: 
Natural: yes
Metal: yes
Nonmetal: 
Metalloid: 
Type: Transition Metal
Atomic Radius: 2.1
Electronegativity: 1.6
First Ionization: 6.7589
Density: 8.57E+00
Melting Point: 2741.15
Boiling Point: 5017
Number of Isotopes: 24
Discoverer: Hatchett
Year: 1801
Specific Heat: 0.265
Number of Shells: 5
Number of Valence: 
