Name: Terbium
Symbol: Tb
Atomic Number: 65
Atomic Mass: 158.925
Number of Neutrons: 94
Number of Protons: 65
Number of Electrons: 65
Period: 6
Group: 
Phase: solid
Radioactive: 
Natural: yes
Metal: yes
Nonmetal: 
Metalloid: 
Type: Lanthanide
Atomic Radius: 2.5
Electronegativity: 1.2
First Ionization: 5.8638
Density: 8.23E+00
Melting Point: 1630.15
Boiling Point: 3503
Number of Isotopes: 24
Discoverer: Mosander
Year: 1843
Specific Heat: 0.182
Number of Shells: 6
Number of Valence: 
