Name: Einsteinium
Symbol: Es
Atomic Number: 99
Atomic Mass: 252
Number of Neutrons: 153
Number of Protons: 99
Number of Electrons: 99
Period: 7
Group: 
Phase: artificial
Radioactive: yes
Natural: 
Metal: yes
Nonmetal: 
Metalloid: 
Type: Actinide
Atomic Radius: 
Electronegativity: 1.3
First Ionization: 6.42
Density: 1.35E+01
Melting Point: 1133.15
Boiling Point: 
Number of Isotopes: 123
Discoverer: Ghiorso et al.
Year: 1952
Specific Heat: 
Number of Shells: 7
Number of Valence: 
